<?xml version="1.0" encoding="UTF-8"?>

<!-- generated on Mon Jul  8 13:08:42 2013 by SUMO gui Version 0.17.1
<?xml version="1.0" encoding="UTF-8"?>

<configuration xmlns:xsi="http://www.w3.org/2001/XMLSchema-instance" xsi:noNamespaceSchemaLocation="http://sumo.sf.net/xsd/sumo-gui.exeConfiguration.xsd">

    <input>
        <net-file value="/Users/agatagrzybek/workspace/ovnis/scenarios/Berkeley/Berkeley.net.xml"/>
        <route-files value="/Users/agatagrzybek/workspace/ovnis/scenarios/Berkeley/Berkeley.rou.xml"/>
        <additional-files value="/Users/agatagrzybek/workspace/ovnis/scenarios/Berkeley/Berkeley.add.xml"/>
    </input>

    <output>
        <summary-output value="/Users/agatagrzybek/workspace/ovnis/scenarios/Berkeley/summary.xml"/>
        <tripinfo-output value="/Users/agatagrzybek/workspace/ovnis/scenarios/Berkeley/tripinfo.xml"/>
    </output>

    <time>
        <begin value="0"/>
        <end value="25200"/>
    </time>

    <processing>
        <route-steps value="60"/>
        <time-to-teleport value="0"/>
        <lanechange.allow-swap value="true"/>
    </processing>

    <report>
        <verbose value="true"/>
        <no-duration-log value="false"/>
        <no-step-log value="false"/>
    </report>

    <traci_server>
        <remote-port value="1233"/>
    </traci_server>

</configuration>
