<?xml version="1.0"?>

<!-- generated on Thu 20 Dec 2012 11:18:39 AM CET by SUMO gui Version 0.15.0
<?xml version="1.0" encoding="UTF-8"?>

<configuration xmlns:xsi="http://www.w3.org/2001/XMLSchema-instance" xsi:noNamespaceSchemaLocation="http://sumo.sf.net/xsd/sumo-gui.exeConfiguration.xsd">

    <input>
        <net-file value="/home/agata/workspace/ovnis/test/FCE/net.net.xml"/>
        <route-files value="/home/agata/workspace/ovnis/test/FCE/input_routes.rou.xml"/>
        <additional-files value="/home/agata/workspace/ovnis/test/FCE/input_additional.add.xml,/home/agata/workspace/ovnis/test/FCE/input_additional2.add.xml"/>
    </input>

    <output>
        <summary-output value="/home/agata/workspace/ovnis/test/FCE/summary.xml"/>
        <tripinfo-output value="/home/agata/workspace/ovnis/test/FCE/tripinfo.xml"/>
    </output>

    <time>
        <begin value="0"/>
        <end value="3600"/>
    </time>

    <processing>
        <route-steps value="60"/>
        <time-to-teleport value="0"/>
        <lanechange.allow-swap value="true"/>
    </processing>

    <report>
        <verbose value="true"/>
        <no-duration-log value="false"/>
        <no-step-log value="false"/>
    </report>

</configuration>
-->

<tripinfos>
    <tripinfo id="1.0" depart="1.00" departLane="main_1_1" departPos="7.60" departSpeed="31.94" departDelay="0.00" arrival="108.00" arrivalLane="main_2b_1" arrivalPos="990.13" arrivalSpeed="39.81" duration="107.00" routeLength="3484.53" waitSteps="0" rerouteNo="0" devices="tripinfo_1.0" vType="KRAUSS_DEFAULT" vaporized=""/>
    <tripinfo id="1.1" depart="5.00" departLane="main_1_1" departPos="7.60" departSpeed="31.94" departDelay="-0.23" arrival="113.00" arrivalLane="main_2b_1" arrivalPos="1020.02" arrivalSpeed="39.09" duration="108.00" routeLength="3514.42" waitSteps="0" rerouteNo="0" devices="tripinfo_1.1" vType="KRAUSS_DEFAULT" vaporized=""/>
    <tripinfo id="1.2" depart="9.00" departLane="main_1_1" departPos="7.60" departSpeed="31.94" departDelay="-0.47" arrival="116.00" arrivalLane="main_2b_1" arrivalPos="995.19" arrivalSpeed="39.58" duration="107.00" routeLength="3489.59" waitSteps="0" rerouteNo="0" devices="tripinfo_1.2" vType="KRAUSS_DEFAULT" vaporized=""/>
    <tripinfo id="1.3" depart="13.00" departLane="main_1_1" departPos="7.60" departSpeed="31.94" departDelay="-0.70" arrival="121.00" arrivalLane="main_2b_1" arrivalPos="1015.66" arrivalSpeed="38.85" duration="108.00" routeLength="3510.06" waitSteps="0" rerouteNo="0" devices="tripinfo_1.3" vType="KRAUSS_DEFAULT" vaporized=""/>
    <tripinfo id="1.4" depart="17.00" departLane="main_1_1" departPos="7.60" departSpeed="31.94" departDelay="-0.94" arrival="125.00" arrivalLane="main_2b_1" arrivalPos="1019.19" arrivalSpeed="39.26" duration="108.00" routeLength="3513.59" waitSteps="0" rerouteNo="0" devices="tripinfo_1.4" vType="KRAUSS_DEFAULT" vaporized=""/>
    <tripinfo id="1.5" depart="22.00" departLane="main_1_1" departPos="7.60" departSpeed="31.94" departDelay="-0.17" arrival="130.00" arrivalLane="main_2b_1" arrivalPos="1023.83" arrivalSpeed="38.85" duration="108.00" routeLength="3518.23" waitSteps="0" rerouteNo="0" devices="tripinfo_1.5" vType="KRAUSS_DEFAULT" vaporized=""/>
    <tripinfo id="1.6" depart="26.00" departLane="main_1_1" departPos="7.60" departSpeed="31.94" departDelay="-0.41" arrival="134.00" arrivalLane="main_2b_1" arrivalPos="1027.31" arrivalSpeed="39.09" duration="108.00" routeLength="3521.71" waitSteps="0" rerouteNo="0" devices="tripinfo_1.6" vType="KRAUSS_DEFAULT" vaporized=""/>
    <tripinfo id="1.7" depart="30.00" departLane="main_1_1" departPos="7.60" departSpeed="31.94" departDelay="-0.65" arrival="138.00" arrivalLane="main_2b_1" arrivalPos="1013.64" arrivalSpeed="38.74" duration="108.00" routeLength="3508.04" waitSteps="0" rerouteNo="0" devices="tripinfo_1.7" vType="KRAUSS_DEFAULT" vaporized=""/>
    <tripinfo id="3.0" depart="3.00" departLane="main_1_1" departPos="7.60" departSpeed="31.94" departDelay="0.00" arrival="138.00" arrivalLane="bypass_2_0" arrivalPos="2399.92" arrivalSpeed="24.29" duration="135.00" routeLength="3489.88" waitSteps="0" rerouteNo="0" devices="tripinfo_3.0" vType="KRAUSS_DEFAULT" vaporized=""/>
    <tripinfo id="1.8" depart="34.00" departLane="main_1_1" departPos="7.60" departSpeed="31.94" departDelay="-0.88" arrival="142.00" arrivalLane="main_2b_1" arrivalPos="1021.10" arrivalSpeed="39.21" duration="108.00" routeLength="3515.50" waitSteps="0" rerouteNo="0" devices="tripinfo_1.8" vType="KRAUSS_DEFAULT" vaporized=""/>
    <tripinfo id="3.1" depart="7.00" departLane="main_1_1" departPos="7.60" departSpeed="31.94" departDelay="-0.23" arrival="142.00" arrivalLane="bypass_2_0" arrivalPos="2407.17" arrivalSpeed="24.13" duration="135.00" routeLength="3497.13" waitSteps="0" rerouteNo="0" devices="tripinfo_3.1" vType="KRAUSS_DEFAULT" vaporized=""/>
    <tripinfo id="3.2" depart="11.00" departLane="main_1_1" departPos="7.60" departSpeed="31.94" departDelay="-0.47" arrival="146.00" arrivalLane="bypass_2_0" arrivalPos="2409.16" arrivalSpeed="24.94" duration="135.00" routeLength="3499.12" waitSteps="0" rerouteNo="0" devices="tripinfo_3.2" vType="KRAUSS_DEFAULT" vaporized=""/>
    <tripinfo id="0.2" depart="8.00" departLane="main_1_0" departPos="7.60" departSpeed="31.94" departDelay="-0.47" arrival="150.00" arrivalLane="main_2b_1" arrivalPos="1007.67" arrivalSpeed="38.91" duration="142.00" routeLength="3502.07" waitSteps="19" rerouteNo="0" devices="tripinfo_0.2" vType="KRAUSS_DEFAULT" vaporized=""/>
    <tripinfo id="3.3" depart="15.00" departLane="main_1_1" departPos="7.60" departSpeed="31.94" departDelay="-0.70" arrival="150.00" arrivalLane="bypass_2_0" arrivalPos="2401.69" arrivalSpeed="24.48" duration="135.00" routeLength="3491.65" waitSteps="0" rerouteNo="0" devices="tripinfo_3.3" vType="KRAUSS_DEFAULT" vaporized=""/>
    <tripinfo id="0.4" depart="16.00" departLane="main_1_0" departPos="7.60" departSpeed="31.94" departDelay="-0.94" arrival="152.00" arrivalLane="main_2b_1" arrivalPos="1004.92" arrivalSpeed="39.94" duration="136.00" routeLength="3499.32" waitSteps="11" rerouteNo="0" devices="tripinfo_0.4" vType="KRAUSS_DEFAULT" vaporized=""/>
    <tripinfo id="1.9" depart="39.00" departLane="main_1_1" departPos="7.60" departSpeed="31.94" departDelay="-0.12" arrival="154.00" arrivalLane="main_2b_1" arrivalPos="1005.02" arrivalSpeed="38.85" duration="115.00" routeLength="3499.42" waitSteps="0" rerouteNo="0" devices="tripinfo_1.9" vType="KRAUSS_DEFAULT" vaporized=""/>
    <tripinfo id="3.4" depart="19.00" departLane="main_1_1" departPos="7.60" departSpeed="31.94" departDelay="-0.94" arrival="154.00" arrivalLane="bypass_2_0" arrivalPos="2401.18" arrivalSpeed="24.00" duration="135.00" routeLength="3491.14" waitSteps="0" rerouteNo="0" devices="tripinfo_3.4" vType="KRAUSS_DEFAULT" vaporized=""/>
    <tripinfo id="1.10" depart="43.00" departLane="main_1_1" departPos="7.60" departSpeed="31.94" departDelay="-0.35" arrival="156.00" arrivalLane="main_2b_1" arrivalPos="1010.83" arrivalSpeed="38.72" duration="113.00" routeLength="3505.23" waitSteps="0" rerouteNo="0" devices="tripinfo_1.10" vType="KRAUSS_DEFAULT" vaporized=""/>
    <tripinfo id="1.11" depart="47.00" departLane="main_1_1" departPos="7.60" departSpeed="31.94" departDelay="-0.58" arrival="158.00" arrivalLane="main_2b_1" arrivalPos="1017.95" arrivalSpeed="39.50" duration="111.00" routeLength="3512.35" waitSteps="0" rerouteNo="0" devices="tripinfo_1.11" vType="KRAUSS_DEFAULT" vaporized=""/>
    <tripinfo id="3.5" depart="24.00" departLane="main_1_1" departPos="7.60" departSpeed="31.94" departDelay="-0.17" arrival="159.00" arrivalLane="bypass_2_0" arrivalPos="2408.60" arrivalSpeed="23.99" duration="135.00" routeLength="3498.56" waitSteps="0" rerouteNo="0" devices="tripinfo_3.5" vType="KRAUSS_DEFAULT" vaporized=""/>
    <tripinfo id="1.12" depart="51.00" departLane="main_1_1" departPos="7.60" departSpeed="31.94" departDelay="-0.82" arrival="160.00" arrivalLane="main_2b_1" arrivalPos="1022.25" arrivalSpeed="39.49" duration="109.00" routeLength="3516.65" waitSteps="0" rerouteNo="0" devices="tripinfo_1.12" vType="KRAUSS_DEFAULT" vaporized=""/>
    <tripinfo id="3.6" depart="28.00" departLane="main_1_1" departPos="7.60" departSpeed="31.94" departDelay="-0.41" arrival="163.00" arrivalLane="bypass_2_0" arrivalPos="2407.35" arrivalSpeed="24.39" duration="135.00" routeLength="3497.31" waitSteps="0" rerouteNo="0" devices="tripinfo_3.6" vType="KRAUSS_DEFAULT" vaporized=""/>
    <tripinfo id="1.13" depart="56.00" departLane="main_1_1" departPos="7.60" departSpeed="31.94" departDelay="-0.06" arrival="164.00" arrivalLane="main_2b_1" arrivalPos="1021.84" arrivalSpeed="39.85" duration="108.00" routeLength="3516.24" waitSteps="0" rerouteNo="0" devices="tripinfo_1.13" vType="KRAUSS_DEFAULT" vaporized=""/>
    <tripinfo id="3.7" depart="32.00" departLane="main_1_1" departPos="7.60" departSpeed="31.94" departDelay="-0.65" arrival="167.00" arrivalLane="bypass_2_0" arrivalPos="2406.73" arrivalSpeed="24.91" duration="135.00" routeLength="3496.69" waitSteps="0" rerouteNo="0" devices="tripinfo_3.7" vType="KRAUSS_DEFAULT" vaporized=""/>
    <tripinfo id="1.14" depart="60.00" departLane="main_1_1" departPos="7.60" departSpeed="31.94" departDelay="-0.29" arrival="168.00" arrivalLane="main_2b_1" arrivalPos="1010.36" arrivalSpeed="39.80" duration="108.00" routeLength="3504.76" waitSteps="0" rerouteNo="0" devices="tripinfo_1.14" vType="KRAUSS_DEFAULT" vaporized=""/>
    <tripinfo id="1.15" depart="64.00" departLane="main_1_1" departPos="7.60" departSpeed="31.94" departDelay="-0.53" arrival="171.00" arrivalLane="main_2b_1" arrivalPos="991.98" arrivalSpeed="38.81" duration="107.00" routeLength="3486.38" waitSteps="0" rerouteNo="0" devices="tripinfo_1.15" vType="KRAUSS_DEFAULT" vaporized=""/>
    <tripinfo id="3.8" depart="36.00" departLane="main_1_1" departPos="7.60" departSpeed="31.94" departDelay="-0.88" arrival="171.00" arrivalLane="bypass_2_0" arrivalPos="2400.17" arrivalSpeed="23.79" duration="135.00" routeLength="3490.13" waitSteps="0" rerouteNo="0" devices="tripinfo_3.8" vType="KRAUSS_DEFAULT" vaporized=""/>
    <tripinfo id="1.16" depart="68.00" departLane="main_1_1" departPos="7.60" departSpeed="31.94" departDelay="-0.76" arrival="176.00" arrivalLane="main_2b_1" arrivalPos="1022.10" arrivalSpeed="39.40" duration="108.00" routeLength="3516.50" waitSteps="0" rerouteNo="0" devices="tripinfo_1.16" vType="KRAUSS_DEFAULT" vaporized=""/>
    <tripinfo id="3.9" depart="41.00" departLane="main_1_1" departPos="7.60" departSpeed="31.94" departDelay="-0.12" arrival="176.00" arrivalLane="bypass_2_0" arrivalPos="2403.33" arrivalSpeed="23.96" duration="135.00" routeLength="3493.29" waitSteps="0" rerouteNo="0" devices="tripinfo_3.9" vType="KRAUSS_DEFAULT" vaporized=""/>
    <tripinfo id="1.17" depart="72.00" departLane="main_1_1" departPos="7.60" departSpeed="31.94" departDelay="-0.99" arrival="180.00" arrivalLane="main_2b_1" arrivalPos="1027.92" arrivalSpeed="38.74" duration="108.00" routeLength="3522.32" waitSteps="0" rerouteNo="0" devices="tripinfo_1.17" vType="KRAUSS_DEFAULT" vaporized=""/>
    <tripinfo id="3.10" depart="45.00" departLane="main_1_1" departPos="7.60" departSpeed="31.94" departDelay="-0.35" arrival="180.00" arrivalLane="bypass_2_0" arrivalPos="2408.07" arrivalSpeed="24.40" duration="135.00" routeLength="3498.03" waitSteps="0" rerouteNo="0" devices="tripinfo_3.10" vType="KRAUSS_DEFAULT" vaporized=""/>
    <tripinfo id="0.17" depart="71.00" departLane="main_1_0" departPos="7.60" departSpeed="31.94" departDelay="-0.99" arrival="182.00" arrivalLane="main_2b_1" arrivalPos="1000.59" arrivalSpeed="38.84" duration="111.00" routeLength="3494.99" waitSteps="0" rerouteNo="0" devices="tripinfo_0.17" vType="KRAUSS_DEFAULT" vaporized=""/>
    <tripinfo id="3.11" depart="49.00" departLane="main_1_1" departPos="7.60" departSpeed="31.94" departDelay="-0.58" arrival="184.00" arrivalLane="bypass_2_0" arrivalPos="2404.56" arrivalSpeed="23.80" duration="135.00" routeLength="3494.52" waitSteps="0" rerouteNo="0" devices="tripinfo_3.11" vType="KRAUSS_DEFAULT" vaporized=""/>
    <tripinfo id="1.18" depart="77.00" departLane="main_1_1" departPos="7.60" departSpeed="31.94" departDelay="-0.23" arrival="185.00" arrivalLane="main_2b_1" arrivalPos="1009.83" arrivalSpeed="39.71" duration="108.00" routeLength="3504.23" waitSteps="0" rerouteNo="0" devices="tripinfo_1.18" vType="KRAUSS_DEFAULT" vaporized=""/>
    <tripinfo id="3.12" depart="53.00" departLane="main_1_1" departPos="7.60" departSpeed="31.94" departDelay="-0.82" arrival="188.00" arrivalLane="bypass_2_0" arrivalPos="2404.71" arrivalSpeed="24.51" duration="135.00" routeLength="3494.67" waitSteps="0" rerouteNo="0" devices="tripinfo_3.12" vType="KRAUSS_DEFAULT" vaporized=""/>
    <tripinfo id="1.19" depart="81.00" departLane="main_1_1" departPos="7.60" departSpeed="31.94" departDelay="-0.47" arrival="189.00" arrivalLane="main_2b_1" arrivalPos="1018.67" arrivalSpeed="38.91" duration="108.00" routeLength="3513.07" waitSteps="0" rerouteNo="0" devices="tripinfo_1.19" vType="KRAUSS_DEFAULT" vaporized=""/>
    <tripinfo id="1.20" depart="85.00" departLane="main_1_1" departPos="7.60" departSpeed="31.94" departDelay="-0.70" arrival="193.00" arrivalLane="main_2b_1" arrivalPos="1023.40" arrivalSpeed="39.99" duration="108.00" routeLength="3517.80" waitSteps="0" rerouteNo="0" devices="tripinfo_1.20" vType="KRAUSS_DEFAULT" vaporized=""/>
    <tripinfo id="3.13" depart="58.00" departLane="main_1_1" departPos="7.60" departSpeed="31.94" departDelay="-0.06" arrival="193.00" arrivalLane="bypass_2_0" arrivalPos="2403.03" arrivalSpeed="24.40" duration="135.00" routeLength="3492.99" waitSteps="0" rerouteNo="0" devices="tripinfo_3.13" vType="KRAUSS_DEFAULT" vaporized=""/>
    <tripinfo id="1.21" depart="89.00" departLane="main_1_1" departPos="7.60" departSpeed="31.94" departDelay="-0.94" arrival="197.00" arrivalLane="main_2b_1" arrivalPos="1026.49" arrivalSpeed="39.81" duration="108.00" routeLength="3520.89" waitSteps="0" rerouteNo="0" devices="tripinfo_1.21" vType="KRAUSS_DEFAULT" vaporized=""/>
    <tripinfo id="3.14" depart="62.00" departLane="main_1_1" departPos="7.60" departSpeed="31.94" departDelay="-0.29" arrival="197.00" arrivalLane="bypass_2_0" arrivalPos="2406.61" arrivalSpeed="24.66" duration="135.00" routeLength="3496.57" waitSteps="0" rerouteNo="0" devices="tripinfo_3.14" vType="KRAUSS_DEFAULT" vaporized=""/>
    <tripinfo id="0.21" depart="88.00" departLane="main_1_0" departPos="7.60" departSpeed="31.94" departDelay="-0.94" arrival="199.00" arrivalLane="main_2b_1" arrivalPos="999.89" arrivalSpeed="39.63" duration="111.00" routeLength="3494.29" waitSteps="0" rerouteNo="0" devices="tripinfo_0.21" vType="KRAUSS_DEFAULT" vaporized=""/>
    <tripinfo id="3.15" depart="66.00" departLane="main_1_1" departPos="7.60" departSpeed="31.94" departDelay="-0.53" arrival="201.00" arrivalLane="bypass_2_0" arrivalPos="2408.11" arrivalSpeed="24.21" duration="135.00" routeLength="3498.07" waitSteps="0" rerouteNo="0" devices="tripinfo_3.15" vType="KRAUSS_DEFAULT" vaporized=""/>
    <tripinfo id="1.22" depart="94.00" departLane="main_1_1" departPos="7.60" departSpeed="31.94" departDelay="-0.17" arrival="202.00" arrivalLane="main_2b_1" arrivalPos="1013.92" arrivalSpeed="39.41" duration="108.00" routeLength="3508.32" waitSteps="0" rerouteNo="0" devices="tripinfo_1.22" vType="KRAUSS_DEFAULT" vaporized=""/>
    <tripinfo id="3.16" depart="70.00" departLane="main_1_1" departPos="7.60" departSpeed="31.94" departDelay="-0.76" arrival="205.00" arrivalLane="bypass_2_0" arrivalPos="2403.03" arrivalSpeed="24.86" duration="135.00" routeLength="3492.99" waitSteps="0" rerouteNo="0" devices="tripinfo_3.16" vType="KRAUSS_DEFAULT" vaporized=""/>
    <tripinfo id="1.23" depart="98.00" departLane="main_1_1" departPos="7.60" departSpeed="31.94" departDelay="-0.41" arrival="206.00" arrivalLane="main_2b_1" arrivalPos="1026.25" arrivalSpeed="39.18" duration="108.00" routeLength="3520.65" waitSteps="0" rerouteNo="0" devices="tripinfo_1.23" vType="KRAUSS_DEFAULT" vaporized=""/>
    <tripinfo id="3.17" depart="74.00" departLane="main_1_1" departPos="7.60" departSpeed="31.94" departDelay="-0.99" arrival="209.00" arrivalLane="bypass_2_0" arrivalPos="2405.29" arrivalSpeed="24.56" duration="135.00" routeLength="3495.25" waitSteps="0" rerouteNo="0" devices="tripinfo_3.17" vType="KRAUSS_DEFAULT" vaporized=""/>
    <tripinfo id="1.24" depart="102.00" departLane="main_1_1" departPos="7.60" departSpeed="31.94" departDelay="-0.64" arrival="210.00" arrivalLane="main_2b_1" arrivalPos="1023.53" arrivalSpeed="39.25" duration="108.00" routeLength="3517.93" waitSteps="0" rerouteNo="0" devices="tripinfo_1.24" vType="KRAUSS_DEFAULT" vaporized=""/>
    <tripinfo id="1.25" depart="106.00" departLane="main_1_1" departPos="7.60" departSpeed="31.94" departDelay="-0.88" arrival="214.00" arrivalLane="main_2b_1" arrivalPos="1016.96" arrivalSpeed="39.27" duration="108.00" routeLength="3511.36" waitSteps="0" rerouteNo="0" devices="tripinfo_1.25" vType="KRAUSS_DEFAULT" vaporized=""/>
    <tripinfo id="3.18" depart="79.00" departLane="main_1_1" departPos="7.60" departSpeed="31.94" departDelay="-0.23" arrival="214.00" arrivalLane="bypass_2_0" arrivalPos="2404.31" arrivalSpeed="23.84" duration="135.00" routeLength="3494.27" waitSteps="0" rerouteNo="0" devices="tripinfo_3.18" vType="KRAUSS_DEFAULT" vaporized=""/>
    <tripinfo id="0.25" depart="105.00" departLane="main_1_0" departPos="7.60" departSpeed="31.94" departDelay="-0.88" arrival="216.00" arrivalLane="main_2b_1" arrivalPos="991.54" arrivalSpeed="39.34" duration="111.00" routeLength="3485.94" waitSteps="0" rerouteNo="0" devices="tripinfo_0.25" vType="KRAUSS_DEFAULT" vaporized=""/>
    <tripinfo id="3.19" depart="83.00" departLane="main_1_1" departPos="7.60" departSpeed="31.94" departDelay="-0.47" arrival="218.00" arrivalLane="bypass_2_0" arrivalPos="2401.20" arrivalSpeed="24.13" duration="135.00" routeLength="3491.16" waitSteps="0" rerouteNo="0" devices="tripinfo_3.19" vType="KRAUSS_DEFAULT" vaporized=""/>
    <tripinfo id="1.26" depart="111.00" departLane="main_1_1" departPos="7.60" departSpeed="31.94" departDelay="-0.11" arrival="219.00" arrivalLane="main_2b_1" arrivalPos="1023.26" arrivalSpeed="39.93" duration="108.00" routeLength="3517.66" waitSteps="0" rerouteNo="0" devices="tripinfo_1.26" vType="KRAUSS_DEFAULT" vaporized=""/>
    <tripinfo id="3.20" depart="87.00" departLane="main_1_1" departPos="7.60" departSpeed="31.94" departDelay="-0.70" arrival="222.00" arrivalLane="bypass_2_0" arrivalPos="2401.62" arrivalSpeed="24.48" duration="135.00" routeLength="3491.58" waitSteps="0" rerouteNo="0" devices="tripinfo_3.20" vType="KRAUSS_DEFAULT" vaporized=""/>
    <tripinfo id="1.27" depart="115.00" departLane="main_1_1" departPos="7.60" departSpeed="31.94" departDelay="-0.34" arrival="223.00" arrivalLane="main_2b_1" arrivalPos="1027.78" arrivalSpeed="39.60" duration="108.00" routeLength="3522.18" waitSteps="0" rerouteNo="0" devices="tripinfo_1.27" vType="KRAUSS_DEFAULT" vaporized=""/>
    <tripinfo id="1.28" depart="119.00" departLane="main_1_1" departPos="7.60" departSpeed="31.94" departDelay="-0.58" arrival="227.00" arrivalLane="main_2b_1" arrivalPos="1023.37" arrivalSpeed="39.88" duration="108.00" routeLength="3517.77" waitSteps="0" rerouteNo="0" devices="tripinfo_1.28" vType="KRAUSS_DEFAULT" vaporized=""/>
    <tripinfo id="3.21" depart="91.00" departLane="main_1_1" departPos="7.60" departSpeed="31.94" departDelay="-0.94" arrival="227.00" arrivalLane="bypass_2_0" arrivalPos="2422.56" arrivalSpeed="23.85" duration="136.00" routeLength="3512.52" waitSteps="0" rerouteNo="0" devices="tripinfo_3.21" vType="KRAUSS_DEFAULT" vaporized=""/>
    <tripinfo id="1.29" depart="123.00" departLane="main_1_1" departPos="7.60" departSpeed="31.94" departDelay="-0.81" arrival="231.00" arrivalLane="main_2b_1" arrivalPos="1026.02" arrivalSpeed="38.82" duration="108.00" routeLength="3520.42" waitSteps="0" rerouteNo="0" devices="tripinfo_1.29" vType="KRAUSS_DEFAULT" vaporized=""/>
    <tripinfo id="3.22" depart="96.00" departLane="main_1_1" departPos="7.60" departSpeed="31.94" departDelay="-0.17" arrival="231.00" arrivalLane="bypass_2_0" arrivalPos="2400.49" arrivalSpeed="24.63" duration="135.00" routeLength="3490.45" waitSteps="0" rerouteNo="0" devices="tripinfo_3.22" vType="KRAUSS_DEFAULT" vaporized=""/>
    <tripinfo id="0.29" depart="122.00" departLane="main_1_0" departPos="7.60" departSpeed="31.94" departDelay="-0.81" arrival="233.00" arrivalLane="main_2b_1" arrivalPos="1001.50" arrivalSpeed="39.88" duration="111.00" routeLength="3495.90" waitSteps="0" rerouteNo="0" devices="tripinfo_0.29" vType="KRAUSS_DEFAULT" vaporized=""/>
    <tripinfo id="1.30" depart="128.00" departLane="main_1_1" departPos="7.60" departSpeed="31.94" departDelay="-0.05" arrival="236.00" arrivalLane="main_2b_1" arrivalPos="1018.53" arrivalSpeed="38.80" duration="108.00" routeLength="3512.93" waitSteps="0" rerouteNo="0" devices="tripinfo_1.30" vType="KRAUSS_DEFAULT" vaporized=""/>
    <tripinfo id="3.23" depart="100.00" departLane="main_1_1" departPos="7.60" departSpeed="31.94" departDelay="-0.41" arrival="236.00" arrivalLane="bypass_2_0" arrivalPos="2420.32" arrivalSpeed="24.81" duration="136.00" routeLength="3510.28" waitSteps="0" rerouteNo="0" devices="tripinfo_3.23" vType="KRAUSS_DEFAULT" vaporized=""/>
    <tripinfo id="3.24" depart="104.00" departLane="main_1_1" departPos="7.60" departSpeed="31.94" departDelay="-0.64" arrival="239.00" arrivalLane="bypass_2_0" arrivalPos="2407.99" arrivalSpeed="24.72" duration="135.00" routeLength="3497.95" waitSteps="0" rerouteNo="0" devices="tripinfo_3.24" vType="KRAUSS_DEFAULT" vaporized=""/>
    <tripinfo id="1.31" depart="132.00" departLane="main_1_1" departPos="7.60" departSpeed="31.94" departDelay="-0.28" arrival="240.00" arrivalLane="main_2b_1" arrivalPos="1028.28" arrivalSpeed="38.95" duration="108.00" routeLength="3522.68" waitSteps="0" rerouteNo="0" devices="tripinfo_1.31" vType="KRAUSS_DEFAULT" vaporized=""/>
    <tripinfo id="3.25" depart="108.00" departLane="main_1_1" departPos="7.60" departSpeed="31.94" departDelay="-0.88" arrival="243.00" arrivalLane="bypass_2_0" arrivalPos="2403.93" arrivalSpeed="23.89" duration="135.00" routeLength="3493.89" waitSteps="0" rerouteNo="0" devices="tripinfo_3.25" vType="KRAUSS_DEFAULT" vaporized=""/>
    <tripinfo id="1.32" depart="136.00" departLane="main_1_1" departPos="7.60" departSpeed="31.94" departDelay="-0.52" arrival="244.00" arrivalLane="main_2b_1" arrivalPos="1028.59" arrivalSpeed="39.28" duration="108.00" routeLength="3522.99" waitSteps="0" rerouteNo="0" devices="tripinfo_1.32" vType="KRAUSS_DEFAULT" vaporized=""/>
    <tripinfo id="1.33" depart="140.00" departLane="main_1_1" departPos="7.60" departSpeed="31.94" departDelay="-0.76" arrival="248.00" arrivalLane="main_2b_1" arrivalPos="1024.28" arrivalSpeed="38.89" duration="108.00" routeLength="3518.68" waitSteps="0" rerouteNo="0" devices="tripinfo_1.33" vType="KRAUSS_DEFAULT" vaporized=""/>
    <tripinfo id="3.26" depart="113.00" departLane="main_1_1" departPos="7.60" departSpeed="31.94" departDelay="-0.11" arrival="248.00" arrivalLane="bypass_2_0" arrivalPos="2405.13" arrivalSpeed="24.17" duration="135.00" routeLength="3495.09" waitSteps="0" rerouteNo="0" devices="tripinfo_3.26" vType="KRAUSS_DEFAULT" vaporized=""/>
    <tripinfo id="0.33" depart="139.00" departLane="main_1_0" departPos="7.60" departSpeed="31.94" departDelay="-0.76" arrival="250.00" arrivalLane="main_2b_1" arrivalPos="1026.96" arrivalSpeed="39.60" duration="111.00" routeLength="3521.36" waitSteps="0" rerouteNo="0" devices="tripinfo_0.33" vType="KRAUSS_DEFAULT" vaporized=""/>
    <tripinfo id="1.34" depart="144.00" departLane="main_1_1" departPos="7.60" departSpeed="31.94" departDelay="-0.99" arrival="252.00" arrivalLane="main_2b_1" arrivalPos="1010.12" arrivalSpeed="38.74" duration="108.00" routeLength="3504.52" waitSteps="0" rerouteNo="0" devices="tripinfo_1.34" vType="KRAUSS_DEFAULT" vaporized=""/>
    <tripinfo id="3.27" depart="117.00" departLane="main_1_1" departPos="7.60" departSpeed="31.94" departDelay="-0.34" arrival="252.00" arrivalLane="bypass_2_0" arrivalPos="2413.13" arrivalSpeed="24.86" duration="135.00" routeLength="3503.09" waitSteps="0" rerouteNo="0" devices="tripinfo_3.27" vType="KRAUSS_DEFAULT" vaporized=""/>
    <tripinfo id="3.28" depart="121.00" departLane="main_1_1" departPos="7.60" departSpeed="31.94" departDelay="-0.58" arrival="256.00" arrivalLane="bypass_2_0" arrivalPos="2405.15" arrivalSpeed="23.71" duration="135.00" routeLength="3495.11" waitSteps="0" rerouteNo="0" devices="tripinfo_3.28" vType="KRAUSS_DEFAULT" vaporized=""/>
    <tripinfo id="3.29" depart="125.00" departLane="main_1_1" departPos="7.60" departSpeed="31.94" departDelay="-0.81" arrival="260.00" arrivalLane="bypass_2_0" arrivalPos="2402.58" arrivalSpeed="24.45" duration="135.00" routeLength="3492.54" waitSteps="0" rerouteNo="0" devices="tripinfo_3.29" vType="KRAUSS_DEFAULT" vaporized=""/>
    <tripinfo id="0.3" depart="12.00" departLane="main_1_0" departPos="7.60" departSpeed="31.94" departDelay="-0.70" arrival="261.00" arrivalLane="main_2b_1" arrivalPos="990.31" arrivalSpeed="39.21" duration="249.00" routeLength="3484.71" waitSteps="123" rerouteNo="0" devices="tripinfo_0.3" vType="KRAUSS_DEFAULT" vaporized=""/>
    <tripinfo id="0.7" depart="29.00" departLane="main_1_0" departPos="7.60" departSpeed="31.94" departDelay="-0.65" arrival="264.00" arrivalLane="main_2b_1" arrivalPos="1024.90" arrivalSpeed="39.15" duration="235.00" routeLength="3519.30" waitSteps="97" rerouteNo="0" devices="tripinfo_0.7" vType="KRAUSS_DEFAULT" vaporized=""/>
    <tripinfo id="0.12" depart="50.00" departLane="main_1_0" departPos="7.60" departSpeed="31.94" departDelay="-0.82" arrival="265.00" arrivalLane="main_2b_1" arrivalPos="990.55" arrivalSpeed="39.21" duration="215.00" routeLength="3484.95" waitSteps="86" rerouteNo="0" devices="tripinfo_0.12" vType="KRAUSS_DEFAULT" vaporized=""/>
    <tripinfo id="3.30" depart="130.00" departLane="main_1_1" departPos="7.60" departSpeed="31.94" departDelay="-0.05" arrival="265.00" arrivalLane="bypass_2_0" arrivalPos="2401.81" arrivalSpeed="23.80" duration="135.00" routeLength="3491.77" waitSteps="0" rerouteNo="0" devices="tripinfo_3.30" vType="KRAUSS_DEFAULT" vaporized=""/>
    <tripinfo id="0.14" depart="59.00" departLane="main_1_0" departPos="7.60" departSpeed="31.94" departDelay="-0.29" arrival="267.00" arrivalLane="main_2b_1" arrivalPos="995.32" arrivalSpeed="39.14" duration="208.00" routeLength="3489.72" waitSteps="77" rerouteNo="0" devices="tripinfo_0.14" vType="KRAUSS_DEFAULT" vaporized=""/>
    <tripinfo id="0.20" depart="84.00" departLane="main_1_0" departPos="7.60" departSpeed="31.94" departDelay="-0.70" arrival="269.00" arrivalLane="main_2b_1" arrivalPos="1001.03" arrivalSpeed="38.96" duration="185.00" routeLength="3495.43" waitSteps="53" rerouteNo="0" devices="tripinfo_0.20" vType="KRAUSS_DEFAULT" vaporized=""/>
    <tripinfo id="3.31" depart="134.00" departLane="main_1_1" departPos="7.60" departSpeed="31.94" departDelay="-0.28" arrival="269.00" arrivalLane="bypass_2_0" arrivalPos="2402.64" arrivalSpeed="24.13" duration="135.00" routeLength="3492.60" waitSteps="0" rerouteNo="0" devices="tripinfo_3.31" vType="KRAUSS_DEFAULT" vaporized=""/>
    <tripinfo id="1.35" depart="149.00" departLane="main_1_1" departPos="7.60" departSpeed="31.94" departDelay="-0.23" arrival="271.00" arrivalLane="main_2b_1" arrivalPos="1002.12" arrivalSpeed="39.57" duration="122.00" routeLength="3496.52" waitSteps="0" rerouteNo="0" devices="tripinfo_1.35" vType="KRAUSS_DEFAULT" vaporized=""/>
    <tripinfo id="1.36" depart="153.00" departLane="main_1_1" departPos="7.60" departSpeed="31.94" departDelay="-0.46" arrival="273.00" arrivalLane="main_2b_1" arrivalPos="1007.25" arrivalSpeed="39.40" duration="120.00" routeLength="3501.65" waitSteps="0" rerouteNo="0" devices="tripinfo_1.36" vType="KRAUSS_DEFAULT" vaporized=""/>
    <tripinfo id="3.32" depart="138.00" departLane="main_1_1" departPos="7.60" departSpeed="31.94" departDelay="-0.52" arrival="273.00" arrivalLane="bypass_2_0" arrivalPos="2407.50" arrivalSpeed="23.93" duration="135.00" routeLength="3497.46" waitSteps="0" rerouteNo="0" devices="tripinfo_3.32" vType="KRAUSS_DEFAULT" vaporized=""/>
    <tripinfo id="1.37" depart="157.00" departLane="main_1_1" departPos="7.60" departSpeed="31.94" departDelay="-0.69" arrival="275.00" arrivalLane="main_2b_1" arrivalPos="1011.00" arrivalSpeed="38.77" duration="118.00" routeLength="3505.40" waitSteps="0" rerouteNo="0" devices="tripinfo_1.37" vType="KRAUSS_DEFAULT" vaporized=""/>
    <tripinfo id="1.38" depart="161.00" departLane="main_1_1" departPos="7.60" departSpeed="31.94" departDelay="-0.93" arrival="277.00" arrivalLane="main_2b_1" arrivalPos="1016.58" arrivalSpeed="39.09" duration="116.00" routeLength="3510.98" waitSteps="0" rerouteNo="0" devices="tripinfo_1.38" vType="KRAUSS_DEFAULT" vaporized=""/>
    <tripinfo id="3.33" depart="142.00" departLane="main_1_1" departPos="7.60" departSpeed="31.94" departDelay="-0.76" arrival="277.00" arrivalLane="bypass_2_0" arrivalPos="2404.84" arrivalSpeed="24.68" duration="135.00" routeLength="3494.80" waitSteps="0" rerouteNo="0" devices="tripinfo_3.33" vType="KRAUSS_DEFAULT" vaporized=""/>
    <tripinfo id="0.38" depart="160.00" departLane="main_1_0" departPos="7.60" departSpeed="31.94" departDelay="-0.93" arrival="279.00" arrivalLane="main_2b_1" arrivalPos="1021.54" arrivalSpeed="38.87" duration="119.00" routeLength="3515.94" waitSteps="0" rerouteNo="0" devices="tripinfo_0.38" vType="KRAUSS_DEFAULT" vaporized=""/>