<?xml version="1.0" encoding="UTF-8"?>

<!-- generated on Mon Jul  8 10:44:04 2013 by SUMO gui Version 0.17.1
<?xml version="1.0" encoding="UTF-8"?>

<configuration xmlns:xsi="http://www.w3.org/2001/XMLSchema-instance" xsi:noNamespaceSchemaLocation="http://sumo.sf.net/xsd/sumo-gui.exeConfiguration.xsd">

    <input>
        <net-file value="scenarios/Luxembourg/Luxembourg.net.xml"/>
        <route-files value="scenarios/Luxembourg/Luxembourg.rou.xml"/>
        <additional-files value="scenarios/Luxembourg/additional.add.xml"/>
    </input>

    <output>
        <netstate-dump value="scenarios/Luxembourg/sumoOutput/netsate.xml"/>
        <fcd-output value="scenarios/Luxembourg/sumoOutput/fcd.xml"/>
        <summary-output value="scenarios/Luxembourg/sumoOutput/summary.xml"/>
        <tripinfo-output value="scenarios/Luxembourg/sumoOutput/tripinfo.xml"/>
    </output>

    <time>
        <begin value="20600"/>
        <end value="28800"/>
    </time>

    <processing>
        <route-steps value="60"/>
        <time-to-teleport value="0"/>
        <lanechange.allow-swap value="true"/>
    </processing>

    <report>
        <verbose value="true"/>
        <no-duration-log value="false"/>
        <no-step-log value="false"/>
    </report>

</configuration>
-->

<tripinfos>
</tripinfos>
 id="_h5_3563" depart="20610.00" departLane="-9397842#1_0" departPos="23.04" departSpeed="0.00" departDelay="0.00" arrival="20792.00" arrivalLane="-50050442#2_0" arrivalPos="67.33" arrivalSpeed="12.16" duration="182.00" routeLength="989.06" waitSteps="65" rerouteNo="0" devices="tripinfo__h5_3563" vType="cx" vaporized=""/>
    <tripinfo id="_h5_3619" depart="20652.00" departLane="85192877#1_0" departPos="523.06" departSpeed="0.00" departDelay="0.00" arrival="20833.00" arrivalLane="-27849124#2_0" arrivalPos="271.44" arrivalSpeed="27.20" duration="181.00" routeLength="3601.84" waitSteps="0" rerouteNo="0" devices="tripinfo__h5_3619" vType="porsche" vaporized=""/>
    <tripinfo id="_h5_3683" depart="20700.00" departLane="-93626510#1_0" departPos="120.72" departSpeed="0.00" departDelay="0.00" arrival="20874.00" arrivalLane="24773885_0" arrivalPos="235.69" arrivalSpeed="12.78" duration="174.00" routeLength="2133.56" waitSteps="0" rerouteNo="0" devices="tripinfo__h5_3683" vType="twingo" vaporized=""/>
    <tripinfo id="_h5_3570" depart="20611.00" departLane="-150058933#3_0" departPos="874.23" departSpeed="0.00" departDelay="0.00" arrival="20890.00" arrivalLane="-9803353#1_0" arrivalPos="126.25" arrivalSpeed="13.09" duration="279.00" routeLength="4975.51" waitSteps="0" rerouteNo="0" devices="tripinfo__h5_3570" vType="porsche" vaporized=""/>
    <tripinfo id="_h5_3722" depart="20730.00" departLane="-9397842#1_0" departPos="8.74" departSpeed="0.00" departDelay="0.00" arrival="20914.00" arrivalLane="-23625535_0" arrivalPos="63.81" arrivalSpeed="13.80" duration="184.00" routeLength="1323.86" waitSteps="60" rerouteNo="0" devices="tripinfo__h5_3722" vType="206" vaporized=""/>
    <tripinfo id="_h5_3635" depart="20662.00" departLane="85192877#1_2" departPos="290.63" departSpeed="0.00" departDelay="0.00" arrival="20916.00" arrivalLane="-41173172#4_0" arrivalPos="133.99" arrivalSpeed="13.56" duration="254.00" routeLength="4502.67" waitSteps="0" rerouteNo="0" devices="tripinfo__h5_3635" vType="cx" vaporized=""/>
    <tripinfo id="_h5_3692" depart="20705.00" departLane="25634926#3_0" departPos="19.23" departSpeed="0.00" departDelay="0.00" arrival="20927.00" arrivalLane="92713165_0" arrivalPos="1.72" arrivalSpeed="13.46" duration="222.00" routeLength="2740.53" waitSteps="0" rerouteNo="0" devices="tripinfo__h5_3692" vType="cx" vaporized=""/>
    <tripinfo id="_h5_3775" depart="20771.00" departLane="50084056#1_0" departPos="2.14" departSpeed="0.00" departDelay="0.00" arrival="20955.00" arrivalLane="95542169#8_0" arrivalPos="10.58" arrivalSpeed="13.48" duration="184.00" routeLength="2147.34" waitSteps="0" rerouteNo="0" devices="tripinfo__h5_3775" vType="cx" vaporized=""/>
    <tripinfo id="_h5_3748" depart="20746.00" departLane="23978254#0_0" departPos="49.10" departSpeed="0.00" departDelay="0.00" arrival="20965.00" arrivalLane="27016366#0_0" arrivalPos="395.76" arrivalSpeed="13.76" duration="219.00" routeLength="2661.94" waitSteps="0" rerouteNo="0" devices="tripinfo__h5_3748" vType="twingo" vaporized=""/>
    <tripinfo id="_h5_3699" depart="20714.00" departLane="26732375_1" departPos="51.33" departSpeed="0.00" departDelay="0.00" arrival="20966.00" arrivalLane="133394847_0" arrivalPos="1837.23" arrivalSpeed="36.08" duration="252.00" routeLength="7546.69" waitSteps="0" rerouteNo="0" devices="tripinfo__h5_3699" vType="206" vaporized=""/>
    <tripinfo id="_h5_3572" depart="20614.00" departLane="23899045#5_0" departPos="31.61" departSpeed="0.00" departDelay="0.00" arrival="20966.00" arrivalLane="25056982#3_0" arrivalPos="376.87" arrivalSpeed="22.03" duration="352.00" routeLength="5273.70" waitSteps="30" rerouteNo="0" devices="tripinfo__h5_3572" vType="porsche" vaporized=""/>
    <tripinfo id="_h5_3642" depart="20666.00" departLane="24430095_0" departPos="3.81" departSpeed="0.00" departDelay="0.00" arrival="20975.00" arrivalLane="-24888111#1_0" arrivalPos="318.55" arrivalSpeed="13.85" duration="309.00" routeLength="7609.18" waitSteps="0" rerouteNo="0" devices="tripinfo__h5_3642" vType="porsche" vaporized=""/>
    <tripinfo id="_h5_3662" depart="20684.00" departLane="124176818#2_0" departPos="148.87" departSpeed="0.00" departDelay="0.00" arrival="21006.00" arrivalLane="-23926763#5_0" arrivalPos="120.07" arrivalSpeed="13.51" duration="322.00" routeLength="6402.96" waitSteps="0" rerouteNo="0" devices="tripinfo__h5_3662" vType="306" vaporized=""/>
    <tripinfo id="_h5_3689" depart="20702.00" departLane="26732375_2" departPos="25.99" departSpeed="0.00" departDelay="0.00" arrival="21032.00" arrivalLane="-9807754#0_1" arrivalPos="100.42" arrivalSpeed="13.04" duration="330.00" routeLength="5884.81" waitSteps="0" rerouteNo="0" devices="tripinfo__h5_3689" vType="306" vaporized=""/>
    <tripinfo id="_h5_3730" depart="20736.00" departLane="-50010692#1_0" departPos="1.93" departSpeed="0.00" departDelay="0.00" arrival="21037.00" arrivalLane="82016409#4_0" arrivalPos="0.53" arrivalSpeed="13.34" duration="301.00" routeLength="2344.96" waitSteps="73" rerouteNo="0" devices="tripinfo__h5_3730" vType="306" vaporized=""/>
    <tripinfo id="_h5_3882" depart="20844.00" departLane="37847289#15_0" departPos="259.03" departSpeed="0.00" departDelay="0.00" arrival="21044.00" arrivalLane="50649900#0_0" arrivalPos="21.99" arrivalSpeed="10.41" duration="200.00" routeLength="3322.35" waitSteps="17" rerouteNo="0" devices="tripinfo__h5_3882" vType="206" vaporized=""/>
    <tripinfo id="_h5_3852" depart="20824.00" departLane="85192877#1_0" departPos="848.34" departSpeed="0.00" departDelay="0.00" arrival="21060.00" arrivalLane="31736094#2_0" arrivalPos="106.12" arrivalSpeed="13.87" duration="236.00" routeLength="4159.55" waitSteps="1" rerouteNo="0" devices="tripinfo__h5_3852" vType="306" vaporized=""/>
    <tripinfo id="_h5_3590" depart="20625.00" departLane="85192877#1_1" departPos="84.76" departSpeed="0.00" departDelay="0.00" arrival="21067.00" arrivalLane="52575522#1_1" arrivalPos="172.57" arrivalSpeed="19.05" duration="442.00" routeLength="12623.70" waitSteps="0" rerouteNo="0" devices="tripinfo__h5_3590" vType="twingo" vaporized=""/>
    <tripinfo id="_h5_3701" depart="20714.00" departLane="85192877#1_0" departPos="152.64" departSpeed="0.00" departDelay="0.00" arrival="21080.00" arrivalLane="-84059908#0_0" arrivalPos="188.55" arrivalSpeed="13.81" duration="366.00" routeLength="7877.16" waitSteps="0" rerouteNo="0" devices="tripinfo__h5_3701" vType="porsche" vaporized=""/>
    <tripinfo id="_h5_3734" depart="20740.00" departLane="85192877#1_0" departPos="302.51" departSpeed="0.00" departDelay="0.00" arrival="21101.00" arrivalLane="-28995887#1_0" arrivalPos="51.74" arrivalSpeed="12.86" duration="361.00" routeLength="5603.48" waitSteps="0" rerouteNo="0" devices="tripinfo__h5_3734" vType="porsche" vaporized=""/>
</tripinfos>
