<?xml version="1.0"?>

<!-- generated on Tue 29 Jan 2013 07:01:15 PM CET by SUMO gui Version 0.15.0
<?xml version="1.0" encoding="UTF-8"?>

<configuration xmlns:xsi="http://www.w3.org/2001/XMLSchema-instance" xsi:noNamespaceSchemaLocation="http://sumo.sf.net/xsd/sumo-gui.exeConfiguration.xsd">

    <input>
        <net-file value="outputFolder_FCE/net.net.xml"/>
        <route-files value="outputFolder_FCE/input_routes.rou.xml"/>
        <additional-files value="outputFolder_FCE/input_additional.add.xml"/>
    </input>

    <output>
        <summary-output value="outputFolder_FCE/summary.xml"/>
        <tripinfo-output value="outputFolder_FCE/tripinfo.xml"/>
    </output>

    <time>
        <begin value="0"/>
        <end value="14400"/>
    </time>

    <processing>
        <route-steps value="60"/>
        <time-to-teleport value="0"/>
        <lanechange.allow-swap value="true"/>
    </processing>

    <report>
        <verbose value="true"/>
        <no-duration-log value="false"/>
        <no-step-log value="false"/>
    </report>

    <traci_server>
        <remote-port value="1233"/>
    </traci_server>

</configuration>
-->

<tripinfos>
    <tripinfo id="0.0" depart="0.00" departLane="main_1_0" departPos="7.60" departSpeed="31.94" departDelay="0.00" arrival="127.00" arrivalLane="main_2d_0" arrivalPos="40.51" arrivalSpeed="31.07" duration="127.00" routeLength="3026.41" waitSteps="0" rerouteNo="1" devices="tripinfo_0.0" vType="KRAUSS_DEFAULT" vaporized=""/>
    <tripinfo id="1.0" depart="1.00" departLane="main_1_1" departPos="7.60" departSpeed="31.94" departDelay="0.00" arrival="128.00" arrivalLane="main_2d_1" arrivalPos="37.81" arrivalSpeed="31.10" duration="127.00" routeLength="3023.71" waitSteps="0" rerouteNo="1" devices="tripinfo_1.0" vType="KRAUSS_DEFAULT" vaporized=""/>
    <tripinfo id="0.1" depart="2.00" departLane="main_1_0" departPos="7.60" departSpeed="31.94" departDelay="-0.88" arrival="130.00" arrivalLane="main_2d_0" arrivalPos="33.02" arrivalSpeed="30.72" duration="128.00" routeLength="3018.92" waitSteps="0" rerouteNo="1" devices="tripinfo_0.1" vType="KRAUSS_DEFAULT" vaporized=""/>
    <tripinfo id="1.1" depart="3.00" departLane="main_1_1" departPos="7.60" departSpeed="31.94" departDelay="-0.88" arrival="131.00" arrivalLane="main_2d_1" arrivalPos="46.82" arrivalSpeed="31.33" duration="128.00" routeLength="3032.72" waitSteps="0" rerouteNo="1" devices="tripinfo_1.1" vType="KRAUSS_DEFAULT" vaporized=""/>
    <tripinfo id="0.2" depart="5.00" departLane="main_1_0" departPos="7.60" departSpeed="31.94" departDelay="-0.76" arrival="134.00" arrivalLane="main_2d_0" arrivalPos="39.07" arrivalSpeed="31.44" duration="129.00" routeLength="3024.97" waitSteps="0" rerouteNo="1" devices="tripinfo_0.2" vType="KRAUSS_DEFAULT" vaporized=""/>
    <tripinfo id="1.2" depart="6.00" departLane="main_1_1" departPos="7.60" departSpeed="31.94" departDelay="-0.76" arrival="134.00" arrivalLane="main_2d_1" arrivalPos="45.83" arrivalSpeed="31.51" duration="128.00" routeLength="3031.73" waitSteps="0" rerouteNo="1" devices="tripinfo_1.2" vType="KRAUSS_DEFAULT" vaporized=""/>
    <tripinfo id="0.3" depart="8.00" departLane="main_1_0" departPos="7.60" departSpeed="31.94" departDelay="-0.64" arrival="137.00" arrivalLane="main_2d_0" arrivalPos="42.16" arrivalSpeed="30.97" duration="129.00" routeLength="3028.06" waitSteps="0" rerouteNo="1" devices="tripinfo_0.3" vType="KRAUSS_DEFAULT" vaporized=""/>
    <tripinfo id="1.3" depart="9.00" departLane="main_1_1" departPos="7.60" departSpeed="31.94" departDelay="-0.64" arrival="137.00" arrivalLane="main_2d_1" arrivalPos="38.78" arrivalSpeed="31.66" duration="128.00" routeLength="3024.68" waitSteps="0" rerouteNo="1" devices="tripinfo_1.3" vType="KRAUSS_DEFAULT" vaporized=""/>
    <tripinfo id="0.4" depart="11.00" departLane="main_1_0" departPos="7.60" departSpeed="31.94" departDelay="-0.52" arrival="140.00" arrivalLane="main_2d_0" arrivalPos="35.85" arrivalSpeed="30.93" duration="129.00" routeLength="3021.75" waitSteps="0" rerouteNo="1" devices="tripinfo_0.4" vType="KRAUSS_DEFAULT" vaporized=""/>
    <tripinfo id="1.4" depart="12.00" departLane="main_1_1" departPos="7.60" departSpeed="31.94" departDelay="-0.52" arrival="142.00" arrivalLane="main_2d_1" arrivalPos="34.54" arrivalSpeed="30.94" duration="130.00" routeLength="3020.44" waitSteps="0" rerouteNo="1" devices="tripinfo_1.4" vType="KRAUSS_DEFAULT" vaporized=""/>
    <tripinfo id="0.5" depart="14.00" departLane="main_1_0" departPos="7.60" departSpeed="31.94" departDelay="-0.40" arrival="143.00" arrivalLane="main_2d_0" arrivalPos="38.23" arrivalSpeed="30.72" duration="129.00" routeLength="3024.13" waitSteps="0" rerouteNo="1" devices="tripinfo_0.5" vType="KRAUSS_DEFAULT" vaporized=""/>
    <tripinfo id="1.5" depart="15.00" departLane="main_1_1" departPos="7.60" departSpeed="31.94" departDelay="-0.40" arrival="144.00" arrivalLane="main_2d_1" arrivalPos="38.55" arrivalSpeed="30.75" duration="129.00" routeLength="3024.45" waitSteps="0" rerouteNo="1" devices="tripinfo_1.5" vType="KRAUSS_DEFAULT" vaporized=""/>
    <tripinfo id="0.6" depart="17.00" departLane="main_1_0" departPos="7.60" departSpeed="31.94" departDelay="-0.28" arrival="146.00" arrivalLane="main_2d_0" arrivalPos="37.22" arrivalSpeed="30.70" duration="129.00" routeLength="3023.12" waitSteps="0" rerouteNo="1" devices="tripinfo_0.6" vType="KRAUSS_DEFAULT" vaporized=""/>
    <tripinfo id="1.6" depart="18.00" departLane="main_1_1" departPos="7.60" departSpeed="31.94" departDelay="-0.28" arrival="147.00" arrivalLane="main_2d_1" arrivalPos="34.18" arrivalSpeed="31.52" duration="129.00" routeLength="3020.08" waitSteps="0" rerouteNo="1" devices="tripinfo_1.6" vType="KRAUSS_DEFAULT" vaporized=""/>
    <tripinfo id="0.7" depart="20.00" departLane="main_1_0" departPos="7.60" departSpeed="31.94" departDelay="-0.16" arrival="150.00" arrivalLane="main_2d_0" arrivalPos="35.30" arrivalSpeed="31.88" duration="130.00" routeLength="3021.20" waitSteps="0" rerouteNo="1" devices="tripinfo_0.7" vType="KRAUSS_DEFAULT" vaporized=""/>
    <tripinfo id="1.7" depart="21.00" departLane="main_1_1" departPos="7.60" departSpeed="31.94" departDelay="-0.16" arrival="151.00" arrivalLane="main_2d_1" arrivalPos="44.88" arrivalSpeed="30.83" duration="130.00" routeLength="3030.78" waitSteps="0" rerouteNo="1" devices="tripinfo_1.7" vType="KRAUSS_DEFAULT" vaporized=""/>
    <tripinfo id="0.8" depart="23.00" departLane="main_1_0" departPos="7.60" departSpeed="31.94" departDelay="-0.04" arrival="153.00" arrivalLane="main_2d_0" arrivalPos="49.93" arrivalSpeed="31.17" duration="130.00" routeLength="3035.83" waitSteps="0" rerouteNo="1" devices="tripinfo_0.8" vType="KRAUSS_DEFAULT" vaporized=""/>
    <tripinfo id="1.8" depart="24.00" departLane="main_1_1" departPos="7.60" departSpeed="31.94" departDelay="-0.04" arrival="153.00" arrivalLane="main_2d_1" arrivalPos="35.50" arrivalSpeed="31.29" duration="129.00" routeLength="3021.40" waitSteps="0" rerouteNo="1" devices="tripinfo_1.8" vType="KRAUSS_DEFAULT" vaporized=""/>
    <tripinfo id="0.9" depart="25.00" departLane="main_1_0" departPos="7.60" departSpeed="31.94" departDelay="-0.92" arrival="155.00" arrivalLane="main_2d_0" arrivalPos="39.03" arrivalSpeed="31.03" duration="130.00" routeLength="3024.93" waitSteps="0" rerouteNo="1" devices="tripinfo_0.9" vType="KRAUSS_DEFAULT" vaporized=""/>
    <tripinfo id="1.9" depart="26.00" departLane="main_1_1" departPos="7.60" departSpeed="31.94" departDelay="-0.92" arrival="157.00" arrivalLane="main_2d_1" arrivalPos="34.72" arrivalSpeed="30.90" duration="131.00" routeLength="3020.62" waitSteps="0" rerouteNo="1" devices="tripinfo_1.9" vType="KRAUSS_DEFAULT" vaporized=""/>
    <tripinfo id="0.10" depart="28.00" departLane="main_1_0" departPos="7.60" departSpeed="31.94" departDelay="-0.80" arrival="158.00" arrivalLane="main_2d_0" arrivalPos="49.99" arrivalSpeed="31.86" duration="130.00" routeLength="3035.89" waitSteps="0" rerouteNo="1" devices="tripinfo_0.10" vType="KRAUSS_DEFAULT" vaporized=""/>
    <tripinfo id="1.10" depart="29.00" departLane="main_1_1" departPos="7.60" departSpeed="31.94" departDelay="-0.80" arrival="160.00" arrivalLane="main_2d_1" arrivalPos="46.74" arrivalSpeed="31.60" duration="131.00" routeLength="3032.64" waitSteps="0" rerouteNo="1" devices="tripinfo_1.10" vType="KRAUSS_DEFAULT" vaporized=""/>
    <tripinfo id="0.11" depart="31.00" departLane="main_1_0" departPos="7.60" departSpeed="31.94" departDelay="-0.68" arrival="161.00" arrivalLane="main_2d_0" arrivalPos="45.21" arrivalSpeed="31.60" duration="130.00" routeLength="3031.11" waitSteps="0" rerouteNo="1" devices="tripinfo_0.11" vType="KRAUSS_DEFAULT" vaporized=""/>
    <tripinfo id="1.11" depart="32.00" departLane="main_1_1" departPos="7.60" departSpeed="31.94" departDelay="-0.68" arrival="163.00" arrivalLane="main_2d_1" arrivalPos="35.15" arrivalSpeed="31.88" duration="131.00" routeLength="3021.05" waitSteps="0" rerouteNo="1" devices="tripinfo_1.11" vType="KRAUSS_DEFAULT" vaporized=""/>
    <tripinfo id="0.12" depart="34.00" departLane="main_1_0" departPos="7.60" departSpeed="31.94" departDelay="-0.56" arrival="164.00" arrivalLane="main_2d_0" arrivalPos="40.79" arrivalSpeed="31.56" duration="130.00" routeLength="3026.69" waitSteps="0" rerouteNo="1" devices="tripinfo_0.12" vType="KRAUSS_DEFAULT" vaporized=""/>
    <tripinfo id="1.12" depart="35.00" departLane="main_1_1" departPos="7.60" departSpeed="31.94" departDelay="-0.56" arrival="166.00" arrivalLane="main_2d_1" arrivalPos="45.07" arrivalSpeed="30.86" duration="131.00" routeLength="3030.97" waitSteps="0" rerouteNo="1" devices="tripinfo_1.12" vType="KRAUSS_DEFAULT" vaporized=""/>
    <tripinfo id="0.13" depart="37.00" departLane="main_1_0" departPos="7.60" departSpeed="31.94" departDelay="-0.44" arrival="167.00" arrivalLane="main_2d_0" arrivalPos="47.13" arrivalSpeed="30.91" duration="130.00" routeLength="3033.03" waitSteps="0" rerouteNo="1" devices="tripinfo_0.13" vType="KRAUSS_DEFAULT" vaporized=""/>
    <tripinfo id="0.14" depart="40.00" departLane="main_1_0" departPos="7.60" departSpeed="31.94" departDelay="-0.32" arrival="170.00" arrivalLane="main_2d_0" arrivalPos="43.31" arrivalSpeed="30.81" duration="130.00" routeLength="3029.21" waitSteps="0" rerouteNo="1" devices="tripinfo_0.14" vType="KRAUSS_DEFAULT" vaporized=""/>
    <tripinfo id="1.13" depart="38.00" departLane="main_1_1" departPos="7.60" departSpeed="31.94" departDelay="-0.44" arrival="170.00" arrivalLane="main_2d_1" arrivalPos="40.47" arrivalSpeed="31.05" duration="132.00" routeLength="3026.37" waitSteps="0" rerouteNo="1" devices="tripinfo_1.13" vType="KRAUSS_DEFAULT" vaporized=""/>
    <tripinfo id="1.14" depart="41.00" departLane="main_1_1" departPos="7.60" departSpeed="31.94" departDelay="-0.32" arrival="172.00" arrivalLane="main_2d_1" arrivalPos="38.61" arrivalSpeed="31.33" duration="131.00" routeLength="3024.51" waitSteps="0" rerouteNo="1" devices="tripinfo_1.14" vType="KRAUSS_DEFAULT" vaporized=""/>
    <tripinfo id="0.15" depart="43.00" departLane="main_1_0" departPos="7.60" departSpeed="31.94" departDelay="-0.20" arrival="173.00" arrivalLane="main_2d_0" arrivalPos="43.49" arrivalSpeed="31.66" duration="130.00" routeLength="3029.39" waitSteps="0" rerouteNo="1" devices="tripinfo_0.15" vType="KRAUSS_DEFAULT" vaporized=""/>
    <tripinfo id="1.15" depart="44.00" departLane="main_1_1" departPos="7.60" departSpeed="31.94" departDelay="-0.20" arrival="175.00" arrivalLane="main_2d_1" arrivalPos="31.33" arrivalSpeed="30.92" duration="131.00" routeLength="3017.23" waitSteps="0" rerouteNo="1" devices="tripinfo_1.15" vType="KRAUSS_DEFAULT" vaporized=""/>
    <tripinfo id="0.16" depart="46.00" departLane="main_1_0" departPos="7.60" departSpeed="31.94" departDelay="-0.08" arrival="176.00" arrivalLane="main_2d_0" arrivalPos="46.94" arrivalSpeed="31.05" duration="130.00" routeLength="3032.84" waitSteps="0" rerouteNo="1" devices="tripinfo_0.16" vType="KRAUSS_DEFAULT" vaporized=""/>
    <tripinfo id="1.16" depart="47.00" departLane="main_1_1" departPos="7.60" departSpeed="31.94" departDelay="-0.08" arrival="178.00" arrivalLane="main_2d_1" arrivalPos="31.52" arrivalSpeed="31.51" duration="131.00" routeLength="3017.42" waitSteps="0" rerouteNo="1" devices="tripinfo_1.16" vType="KRAUSS_DEFAULT" vaporized=""/>
    <tripinfo id="0.17" depart="48.00" departLane="main_1_0" departPos="7.60" departSpeed="31.94" departDelay="-0.96" arrival="179.00" arrivalLane="main_2d_0" arrivalPos="31.26" arrivalSpeed="30.89" duration="131.00" routeLength="3017.16" waitSteps="0" rerouteNo="1" devices="tripinfo_0.17" vType="KRAUSS_DEFAULT" vaporized=""/>
    <tripinfo id="1.17" depart="49.00" departLane="main_1_1" departPos="7.60" departSpeed="31.94" departDelay="-0.96" arrival="180.00" arrivalLane="main_2d_1" arrivalPos="40.36" arrivalSpeed="31.20" duration="131.00" routeLength="3026.26" waitSteps="0" rerouteNo="1" devices="tripinfo_1.17" vType="KRAUSS_DEFAULT" vaporized=""/>
    <tripinfo id="0.18" depart="51.00" departLane="main_1_0" departPos="7.60" departSpeed="31.94" departDelay="-0.84" arrival="182.00" arrivalLane="main_2d_0" arrivalPos="35.11" arrivalSpeed="31.11" duration="131.00" routeLength="3021.01" waitSteps="0" rerouteNo="1" devices="tripinfo_0.18" vType="KRAUSS_DEFAULT" vaporized=""/>
    <tripinfo id="1.18" depart="52.00" departLane="main_1_1" departPos="7.60" departSpeed="31.94" departDelay="-0.84" arrival="183.00" arrivalLane="main_2d_1" arrivalPos="37.25" arrivalSpeed="31.83" duration="131.00" routeLength="3023.15" waitSteps="0" rerouteNo="1" devices="tripinfo_1.18" vType="KRAUSS_DEFAULT" vaporized=""/>
    <tripinfo id="0.19" depart="54.00" departLane="main_1_0" departPos="7.60" departSpeed="31.94" departDelay="-0.72" arrival="185.00" arrivalLane="main_2d_0" arrivalPos="51.05" arrivalSpeed="31.27" duration="131.00" routeLength="3036.95" waitSteps="0" rerouteNo="1" devices="tripinfo_0.19" vType="KRAUSS_DEFAULT" vaporized=""/>
    <tripinfo id="1.19" depart="55.00" departLane="main_1_1" departPos="7.60" departSpeed="31.94" departDelay="-0.72" arrival="186.00" arrivalLane="main_2d_1" arrivalPos="39.49" arrivalSpeed="31.76" duration="131.00" routeLength="3025.39" waitSteps="0" rerouteNo="1" devices="tripinfo_1.19" vType="KRAUSS_DEFAULT" vaporized=""/>
    <tripinfo id="0.20" depart="57.00" departLane="main_1_0" departPos="7.60" departSpeed="31.94" departDelay="-0.60" arrival="189.00" arrivalLane="main_2d_0" arrivalPos="37.37" arrivalSpeed="31.01" duration="132.00" routeLength="3023.27" waitSteps="0" rerouteNo="1" devices="tripinfo_0.20" vType="KRAUSS_DEFAULT" vaporized=""/>
    <tripinfo id="1.20" depart="58.00" departLane="main_1_1" departPos="7.60" departSpeed="31.94" departDelay="-0.60" arrival="190.00" arrivalLane="main_2d_1" arrivalPos="40.84" arrivalSpeed="30.80" duration="132.00" routeLength="3026.74" waitSteps="0" rerouteNo="1" devices="tripinfo_1.20" vType="KRAUSS_DEFAULT" vaporized=""/>
    <tripinfo id="0.21" depart="60.00" departLane="main_1_0" departPos="7.60" departSpeed="31.94" departDelay="-0.48" arrival="191.00" arrivalLane="main_2d_0" arrivalPos="44.90" arrivalSpeed="31.65" duration="131.00" routeLength="3030.80" waitSteps="0" rerouteNo="1" devices="tripinfo_0.21" vType="KRAUSS_DEFAULT" vaporized=""/>
    <tripinfo id="1.21" depart="61.00" departLane="main_1_1" departPos="7.60" departSpeed="31.94" departDelay="-0.48" arrival="192.00" arrivalLane="main_2d_1" arrivalPos="49.61" arrivalSpeed="31.32" duration="131.00" routeLength="3035.51" waitSteps="0" rerouteNo="1" devices="tripinfo_1.21" vType="KRAUSS_DEFAULT" vaporized=""/>
    <tripinfo id="0.22" depart="63.00" departLane="main_1_0" departPos="7.60" departSpeed="31.94" departDelay="-0.36" arrival="194.00" arrivalLane="main_2d_0" arrivalPos="47.71" arrivalSpeed="31.81" duration="131.00" routeLength="3033.61" waitSteps="0" rerouteNo="1" devices="tripinfo_0.22" vType="KRAUSS_DEFAULT" vaporized=""/>
    <tripinfo id="1.22" depart="64.00" departLane="main_1_1" departPos="7.60" departSpeed="31.94" departDelay="-0.36" arrival="195.00" arrivalLane="main_2d_1" arrivalPos="49.42" arrivalSpeed="31.69" duration="131.00" routeLength="3035.32" waitSteps="0" rerouteNo="1" devices="tripinfo_1.22" vType="KRAUSS_DEFAULT" vaporized=""/>
    <tripinfo id="0.23" depart="66.00" departLane="main_1_0" departPos="7.60" departSpeed="31.94" departDelay="-0.24" arrival="197.00" arrivalLane="main_2d_0" arrivalPos="32.03" arrivalSpeed="30.96" duration="131.00" routeLength="3017.93" waitSteps="0" rerouteNo="1" devices="tripinfo_0.23" vType="KRAUSS_DEFAULT" vaporized=""/>
    <tripinfo id="1.23" depart="67.00" departLane="main_1_1" departPos="7.60" departSpeed="31.94" departDelay="-0.24" arrival="199.00" arrivalLane="main_2d_1" arrivalPos="31.71" arrivalSpeed="31.21" duration="132.00" routeLength="3017.61" waitSteps="0" rerouteNo="1" devices="tripinfo_1.23" vType="KRAUSS_DEFAULT" vaporized=""/>
    <tripinfo id="0.24" depart="69.00" departLane="main_1_0" departPos="7.60" departSpeed="31.94" departDelay="-0.12" arrival="200.00" arrivalLane="main_2d_0" arrivalPos="36.15" arrivalSpeed="30.70" duration="131.00" routeLength="3022.05" waitSteps="0" rerouteNo="1" devices="tripinfo_0.24" vType="KRAUSS_DEFAULT" vaporized=""/>
    <tripinfo id="1.24" depart="70.00" departLane="main_1_1" departPos="7.60" departSpeed="31.94" departDelay="-0.12" arrival="201.00" arrivalLane="main_2d_1" arrivalPos="38.03" arrivalSpeed="31.75" duration="131.00" routeLength="3023.93" waitSteps="0" rerouteNo="1" devices="tripinfo_1.24" vType="KRAUSS_DEFAULT" vaporized=""/>
    <tripinfo id="0.25" depart="72.00" departLane="main_1_0" departPos="7.60" departSpeed="31.94" departDelay="0.00" arrival="203.00" arrivalLane="main_2d_0" arrivalPos="45.46" arrivalSpeed="31.86" duration="131.00" routeLength="3031.36" waitSteps="0" rerouteNo="1" devices="tripinfo_0.25" vType="KRAUSS_DEFAULT" vaporized=""/>
    <tripinfo id="1.25" depart="73.00" departLane="main_1_1" departPos="7.60" departSpeed="31.94" departDelay="0.00" arrival="204.00" arrivalLane="main_2d_1" arrivalPos="46.58" arrivalSpeed="30.65" duration="131.00" routeLength="3032.48" waitSteps="0" rerouteNo="1" devices="tripinfo_1.25" vType="KRAUSS_DEFAULT" vaporized=""/>
    <tripinfo id="0.26" depart="74.00" departLane="main_1_0" departPos="7.60" departSpeed="31.94" departDelay="-0.88" arrival="206.00" arrivalLane="main_2d_0" arrivalPos="35.59" arrivalSpeed="31.09" duration="132.00" routeLength="3021.49" waitSteps="0" rerouteNo="1" devices="tripinfo_0.26" vType="KRAUSS_DEFAULT" vaporized=""/>
    <tripinfo id="1.26" depart="75.00" departLane="main_1_1" departPos="7.60" departSpeed="31.94" departDelay="-0.88" arrival="207.00" arrivalLane="main_2d_1" arrivalPos="33.90" arrivalSpeed="30.68" duration="132.00" routeLength="3019.80" waitSteps="0" rerouteNo="1" devices="tripinfo_1.26" vType="KRAUSS_DEFAULT" vaporized=""/>
    <tripinfo id="0.27" depart="77.00" departLane="main_1_0" departPos="7.60" departSpeed="31.94" departDelay="-0.76" arrival="209.00" arrivalLane="main_2d_0" arrivalPos="50.72" arrivalSpeed="31.71" duration="132.00" routeLength="3036.62" waitSteps="0" rerouteNo="1" devices="tripinfo_0.27" vType="KRAUSS_DEFAULT" vaporized=""/>
    <tripinfo id="1.27" depart="78.00" departLane="main_1_1" departPos="7.60" departSpeed="31.94" departDelay="-0.76" arrival="210.00" arrivalLane="main_2d_1" arrivalPos="41.13" arrivalSpeed="31.18" duration="132.00" routeLength="3027.03" waitSteps="0" rerouteNo="1" devices="tripinfo_1.27" vType="KRAUSS_DEFAULT" vaporized=""/>
    <tripinfo id="0.28" depart="80.00" departLane="main_1_0" departPos="7.60" departSpeed="31.94" departDelay="-0.64" arrival="212.00" arrivalLane="main_2d_0" arrivalPos="43.44" arrivalSpeed="31.49" duration="132.00" routeLength="3029.34" waitSteps="0" rerouteNo="1" devices="tripinfo_0.28" vType="KRAUSS_DEFAULT" vaporized=""/>
    <tripinfo id="1.28" depart="81.00" departLane="main_1_1" departPos="7.60" departSpeed="31.94" departDelay="-0.64" arrival="213.00" arrivalLane="main_2d_1" arrivalPos="41.89" arrivalSpeed="31.23" duration="132.00" routeLength="3027.79" waitSteps="0" rerouteNo="1" devices="tripinfo_1.28" vType="KRAUSS_DEFAULT" vaporized=""/>
    <tripinfo id="0.29" depart="83.00" departLane="main_1_0" departPos="7.60" departSpeed="31.94" departDelay="-0.52" arrival="215.00" arrivalLane="main_2d_0" arrivalPos="40.30" arrivalSpeed="31.43" duration="132.00" routeLength="3026.20" waitSteps="0" rerouteNo="1" devices="tripinfo_0.29" vType="KRAUSS_DEFAULT" vaporized=""/>
    <tripinfo id="1.29" depart="84.00" departLane="main_1_1" departPos="7.60" departSpeed="31.94" departDelay="-0.52" arrival="216.00" arrivalLane="main_2d_1" arrivalPos="50.85" arrivalSpeed="31.50" duration="132.00" routeLength="3036.75" waitSteps="0" rerouteNo="1" devices="tripinfo_1.29" vType="KRAUSS_DEFAULT" vaporized=""/>
    <tripinfo id="0.30" depart="86.00" departLane="main_1_0" departPos="7.60" departSpeed="31.94" departDelay="-0.40" arrival="217.00" arrivalLane="main_2d_0" arrivalPos="36.62" arrivalSpeed="31.67" duration="131.00" routeLength="3022.52" waitSteps="0" rerouteNo="1" devices="tripinfo_0.30" vType="KRAUSS_DEFAULT" vaporized=""/>
    <tripinfo id="1.30" depart="87.00" departLane="main_1_1" departPos="7.60" departSpeed="31.94" departDelay="-0.40" arrival="219.00" arrivalLane="main_2d_1" arrivalPos="37.68" arrivalSpeed="30.95" duration="132.00" routeLength="3023.58" waitSteps="0" rerouteNo="1" devices="tripinfo_1.30" vType="KRAUSS_DEFAULT" vaporized=""/>
    <tripinfo id="0.31" depart="89.00" departLane="main_1_0" departPos="7.60" departSpeed="31.94" departDelay="-0.28" arrival="220.00" arrivalLane="main_2d_0" arrivalPos="34.95" arrivalSpeed="31.15" duration="131.00" routeLength="3020.85" waitSteps="0" rerouteNo="1" devices="tripinfo_0.31" vType="KRAUSS_DEFAULT" vaporized=""/>
    <tripinfo id="1.31" depart="90.00" departLane="main_1_1" departPos="7.60" departSpeed="31.94" departDelay="-0.28" arrival="222.00" arrivalLane="main_2d_1" arrivalPos="37.80" arrivalSpeed="31.77" duration="132.00" routeLength="3023.70" waitSteps="0" rerouteNo="1" devices="tripinfo_1.31" vType="KRAUSS_DEFAULT" vaporized=""/>
    <tripinfo id="0.32" depart="92.00" departLane="main_1_0" departPos="7.60" departSpeed="31.94" departDelay="-0.16" arrival="224.00" arrivalLane="main_2d_0" arrivalPos="46.38" arrivalSpeed="31.65" duration="132.00" routeLength="3032.28" waitSteps="0" rerouteNo="1" devices="tripinfo_0.32" vType="KRAUSS_DEFAULT" vaporized=""/>
    <tripinfo id="1.32" depart="93.00" departLane="main_1_1" departPos="7.60" departSpeed="31.94" departDelay="-0.16" arrival="225.00" arrivalLane="main_2d_1" arrivalPos="30.94" arrivalSpeed="30.89" duration="132.00" routeLength="3016.84" waitSteps="0" rerouteNo="1" devices="tripinfo_1.32" vType="KRAUSS_DEFAULT" vaporized=""/>
    <tripinfo id="0.33" depart="95.00" departLane="main_1_0" departPos="7.60" departSpeed="31.94" departDelay="-0.04" arrival="227.00" arrivalLane="main_2d_0" arrivalPos="39.51" arrivalSpeed="31.09" duration="132.00" routeLength="3025.41" waitSteps="0" rerouteNo="1" devices="tripinfo_0.33" vType="KRAUSS_DEFAULT" vaporized=""/>
    <tripinfo id="1.33" depart="96.00" departLane="main_1_1" departPos="7.60" departSpeed="31.94" departDelay="-0.04" arrival="228.00" arrivalLane="main_2d_1" arrivalPos="47.99" arrivalSpeed="31.37" duration="132.00" routeLength="3033.89" waitSteps="0" rerouteNo="1" devices="tripinfo_1.33" vType="KRAUSS_DEFAULT" vaporized=""/>
    <tripinfo id="0.34" depart="97.00" departLane="main_1_0" departPos="7.60" departSpeed="31.94" departDelay="-0.92" arrival="230.00" arrivalLane="main_2d_0" arrivalPos="40.91" arrivalSpeed="31.86" duration="133.00" routeLength="3026.81" waitSteps="0" rerouteNo="1" devices="tripinfo_0.34" vType="KRAUSS_DEFAULT" vaporized=""/>
    <tripinfo id="1.34" depart="98.00" departLane="main_1_1" departPos="7.60" departSpeed="31.94" departDelay="-0.92" arrival="231.00" arrivalLane="main_2d_1" arrivalPos="46.26" arrivalSpeed="31.19" duration="133.00" routeLength="3032.16" waitSteps="0" rerouteNo="1" devices="tripinfo_1.34" vType="KRAUSS_DEFAULT" vaporized=""/>
    <tripinfo id="0.35" depart="100.00" departLane="main_1_0" departPos="7.60" departSpeed="31.94" departDelay="-0.80" arrival="232.00" arrivalLane="main_2d_0" arrivalPos="50.21" arrivalSpeed="31.50" duration="132.00" routeLength="3036.11" waitSteps="0" rerouteNo="1" devices="tripinfo_0.35" vType="KRAUSS_DEFAULT" vaporized=""/>
    <tripinfo id="1.35" depart="101.00" departLane="main_1_1" departPos="7.60" departSpeed="31.94" departDelay="-0.80" arrival="234.00" arrivalLane="main_2d_1" arrivalPos="47.12" arrivalSpeed="30.84" duration="133.00" routeLength="3033.02" waitSteps="0" rerouteNo="1" devices="tripinfo_1.35" vType="KRAUSS_DEFAULT" vaporized=""/>
    <tripinfo id="0.36" depart="103.00" departLane="main_1_0" departPos="7.60" departSpeed="31.94" departDelay="-0.68" arrival="235.00" arrivalLane="main_2d_0" arrivalPos="35.36" arrivalSpeed="30.77" duration="132.00" routeLength="3021.26" waitSteps="0" rerouteNo="1" devices="tripinfo_0.36" vType="KRAUSS_DEFAULT" vaporized=""/>
    <tripinfo id="0.37" depart="106.00" departLane="main_1_0" departPos="7.60" departSpeed="31.94" departDelay="-0.56" arrival="238.00" arrivalLane="main_2d_0" arrivalPos="34.03" arrivalSpeed="31.02" duration="132.00" routeLength="3019.93" waitSteps="0" rerouteNo="1" devices="tripinfo_0.37" vType="KRAUSS_DEFAULT" vaporized=""/>
    <tripinfo id="1.36" depart="104.00" departLane="main_1_1" departPos="7.60" departSpeed="31.94" departDelay="-0.68" arrival="238.00" arrivalLane="main_2d_1" arrivalPos="39.94" arrivalSpeed="31.86" duration="134.00" routeLength="3025.84" waitSteps="0" rerouteNo="1" devices="tripinfo_1.36" vType="KRAUSS_DEFAULT" vaporized=""/>
    <tripinfo id="1.37" depart="107.00" departLane="main_1_1" departPos="7.60" departSpeed="31.94" departDelay="-0.56" arrival="240.00" arrivalLane="main_2d_1" arrivalPos="39.16" arrivalSpeed="30.87" duration="133.00" routeLength="3025.06" waitSteps="0" rerouteNo="1" devices="tripinfo_1.37" vType="KRAUSS_DEFAULT" vaporized=""/>
    <tripinfo id="0.38" depart="109.00" departLane="main_1_0" departPos="7.60" departSpeed="31.94" departDelay="-0.44" arrival="241.00" arrivalLane="main_2d_0" arrivalPos="46.16" arrivalSpeed="31.86" duration="132.00" routeLength="3032.06" waitSteps="0" rerouteNo="1" devices="tripinfo_0.38" vType="KRAUSS_DEFAULT" vaporized=""/>
    <tripinfo id="1.38" depart="110.00" departLane="main_1_1" departPos="7.60" departSpeed="31.94" departDelay="-0.44" arrival="246.00" arrivalLane="bypass_2b_0" arrivalPos="27.93" arrivalSpeed="24.56" duration="136.00" routeLength="3019.40" waitSteps="0" rerouteNo="1" devices="tripinfo_1.38" vType="KRAUSS_DEFAULT" vaporized=""/>
    <tripinfo id="0.39" depart="112.00" departLane="main_1_0" departPos="7.60" departSpeed="31.94" departDelay="-0.32" arrival="249.00" arrivalLane="bypass_2b_0" arrivalPos="42.69" arrivalSpeed="23.71" duration="137.00" routeLength="3034.16" waitSteps="0" rerouteNo="1" devices="tripinfo_0.39" vType="KRAUSS_DEFAULT" vaporized=""/>
    <tripinfo id="1.39" depart="113.00" departLane="main_1_1" departPos="7.60" departSpeed="31.94" departDelay="-0.32" arrival="251.00" arrivalLane="bypass_2b_0" arrivalPos="38.85" arrivalSpeed="24.15" duration="138.00" routeLength="3030.32" waitSteps="0" rerouteNo="1" devices="tripinfo_1.39" vType="KRAUSS_DEFAULT" vaporized=""/>
    <tripinfo id="0.40" depart="115.00" departLane="main_1_0" departPos="7.60" departSpeed="31.94" departDelay="-0.20" arrival="253.00" arrivalLane="bypass_2b_0" arrivalPos="35.02" arrivalSpeed="24.89" duration="138.00" routeLength="3026.49" waitSteps="0" rerouteNo="1" devices="tripinfo_0.40" vType="KRAUSS_DEFAULT" vaporized=""/>
    <tripinfo id="1.40" depart="116.00" departLane="main_1_1" departPos="7.60" departSpeed="31.94" departDelay="-0.20" arrival="255.00" arrivalLane="bypass_2b_0" arrivalPos="31.56" arrivalSpeed="23.87" duration="139.00" routeLength="3023.03" waitSteps="0" rerouteNo="1" devices="tripinfo_1.40" vType="KRAUSS_DEFAULT" vaporized=""/>
    <tripinfo id="0.41" depart="118.00" departLane="main_1_0" departPos="7.60" departSpeed="31.94" departDelay="-0.08" arrival="257.00" arrivalLane="bypass_2b_0" arrivalPos="28.83" arrivalSpeed="24.34" duration="139.00" routeLength="3020.30" waitSteps="0" rerouteNo="1" devices="tripinfo_0.41" vType="KRAUSS_DEFAULT" vaporized=""/>
    <tripinfo id="1.41" depart="119.00" departLane="main_1_1" departPos="7.60" departSpeed="31.94" departDelay="-0.08" arrival="259.00" arrivalLane="bypass_2b_0" arrivalPos="27.44" arrivalSpeed="24.49" duration="140.00" routeLength="3018.91" waitSteps="0" rerouteNo="1" devices="tripinfo_1.41" vType="KRAUSS_DEFAULT" vaporized=""/>
    <tripinfo id="0.42" depart="120.00" departLane="main_1_0" departPos="7.60" departSpeed="31.94" departDelay="-0.96" arrival="261.00" arrivalLane="bypass_2b_0" arrivalPos="25.21" arrivalSpeed="24.81" duration="141.00" routeLength="3016.68" waitSteps="0" rerouteNo="1" devices="tripinfo_0.42" vType="KRAUSS_DEFAULT" vaporized=""/>
    <tripinfo id="1.42" depart="121.00" departLane="main_1_1" departPos="7.60" departSpeed="31.94" departDelay="-0.96" arrival="264.00" arrivalLane="bypass_2b_0" arrivalPos="41.85" arrivalSpeed="24.70" duration="143.00" routeLength="3033.32" waitSteps="0" rerouteNo="1" devices="tripinfo_1.42" vType="KRAUSS_DEFAULT" vaporized=""/>
    <tripinfo id="0.43" depart="123.00" departLane="main_1_0" departPos="7.60" departSpeed="31.94" departDelay="-0.84" arrival="266.00" arrivalLane="bypass_2b_0" arrivalPos="41.44" arrivalSpeed="24.69" duration="143.00" routeLength="3032.91" waitSteps="0" rerouteNo="1" devices="tripinfo_0.43" vType="KRAUSS_DEFAULT" vaporized=""/>